Get New MOs                                                             
Guess=OnlyRHF                                                         3-21G               
Number of atoms                            I               57
Info1-9                                    I   N=           9
         122         122           0           0           0         100
           3           1           2
Charge                                     I                1
Multiplicity                               I                1
Number of electrons                        I              206
Number of alpha electrons                  I              103
Number of beta electrons                   I              103
Number of basis functions                  I              317
Number of independent functions            I              317
Number of point charges in /Mol/           I                0
Number of translation vectors              I                0
Atomic numbers                             I   N=          57
           6           6           6           6           6           6
           6           6           6           7           6           6
           6           6           8           6           6           6
           6           6           6           6           6           7
           7           6           6           6           6           1
           1           1           1           1           1           1
           1           1           1           1           1           1
           1           1           1           1           1           1
           1           1           1           1           1           1
           1           1           1
Nuclear charges                            R   N=          57
  6.00000000E+00  6.00000000E+00  6.00000000E+00  6.00000000E+00  6.00000000E+00
  6.00000000E+00  6.00000000E+00  6.00000000E+00  6.00000000E+00  7.00000000E+00
  6.00000000E+00  6.00000000E+00  6.00000000E+00  6.00000000E+00  8.00000000E+00
  6.00000000E+00  6.00000000E+00  6.00000000E+00  6.00000000E+00  6.00000000E+00
  6.00000000E+00  6.00000000E+00  6.00000000E+00  7.00000000E+00  7.00000000E+00
  6.00000000E+00  6.00000000E+00  6.00000000E+00  6.00000000E+00  1.00000000E+00
  1.00000000E+00  1.00000000E+00  1.00000000E+00  1.00000000E+00  1.00000000E+00
  1.00000000E+00  1.00000000E+00  1.00000000E+00  1.00000000E+00  1.00000000E+00
  1.00000000E+00  1.00000000E+00  1.00000000E+00  1.00000000E+00  1.00000000E+00
  1.00000000E+00  1.00000000E+00  1.00000000E+00  1.00000000E+00  1.00000000E+00
  1.00000000E+00  1.00000000E+00  1.00000000E+00  1.00000000E+00  1.00000000E+00
  1.00000000E+00  1.00000000E+00
Current cartesian coordinates              R   N=         171
  3.53601811E-01 -9.56085406E-06  1.92779453E-04 -1.00781951E+00 -2.32348249E+00
 -1.61155571E-02 -1.00777365E+00  2.32349202E+00  1.64179680E-02  3.18334764E+00
 -3.25511949E-05  1.60654109E-04  4.54732934E+00  4.35535943E-01  2.23082740E+00
  4.54722153E+00 -4.35625914E-01 -2.23057979E+00  7.18524141E+00 -4.63539351E-01
 -2.25227384E+00  8.46628870E+00 -8.41593209E-05  3.21527316E-05  7.18535868E+00
  4.63403442E-01  2.25238917E+00  1.12146062E+01 -8.82433755E-05 -1.50904217E-05
  1.25447445E+01 -2.38295935E+00 -1.50251851E-02  1.25447507E+01  2.38278256E+00
  1.47852447E-02 -3.69626246E+00  2.25932667E+00  1.91920860E-02 -3.69631020E+00
 -2.25925796E+00 -1.88726675E-02 -4.97711530E+00  4.20525671E-05  2.92934938E-04
  6.19655161E-02 -4.78215426E+00  4.34639749E-03 -1.39418020E+00 -6.95875011E+00
 -4.93215782E-03 -4.07583763E+00 -6.83973108E+00 -4.12848194E-02 -5.18732514E+00
 -4.40415932E+00 -2.76258789E-02  6.20629522E-02  4.78214087E+00 -4.21595162E-03
 -1.39404260E+00  6.95876161E+00  4.91520506E-03 -4.07570573E+00  6.83980365E+00
  4.12508591E-02 -5.18724102E+00  4.40425292E+00  2.77582146E-02 -5.54352580E+00
 -8.99196646E+00 -9.73322068E-02 -5.54332916E+00  8.99209416E+00  9.70979355E-02
 -8.27955253E+00 -8.79140953E+00  1.24502744E-01 -4.36701471E+00 -1.14671715E+01
  1.44246603E-01 -8.27939562E+00  8.79158507E+00 -1.24228679E-01 -4.36678162E+00
  1.14671968E+01 -1.45391722E-01  3.53128582E+00 -7.70352992E-01 -3.97847253E+00
  3.53149764E+00  7.70280253E-01  3.97877683E+00  8.20564435E+00 -8.11031754E-01
 -3.99773639E+00  8.20585429E+00  8.10893729E-01  3.99779881E+00  2.10143274E+00
  4.97877043E+00 -3.97446926E-02 -4.42194907E-01  8.76869017E+00 -2.20549663E-02
 -7.21423122E+00  4.13990313E+00  2.15258978E-02  2.10133148E+00 -4.97882584E+00
  3.98751385E-02 -4.42366926E-01 -8.76869778E+00  2.19832115E-02 -7.21431339E+00
 -4.13977885E+00 -2.14445848E-02  1.22871237E+01 -3.26791995E+00 -1.87583284E+00
  1.45511820E+01 -2.10782300E+00  3.46704302E-01  1.16906694E+01 -3.64326863E+00
  1.37871776E+00  1.22870470E+01  3.26797189E+00  1.87545873E+00  1.45512014E+01
  2.10758908E+00 -3.46857315E-01  1.16907760E+01  3.64292007E+00 -1.37919013E+00
 -5.81738724E+00 -1.29206636E+01 -1.83435442E-02 -2.98632225E+00 -1.17892981E+01
 -1.36584111E+00 -3.40680709E+00 -1.17102792E+01  1.97164579E+00 -9.10766663E+00
 -1.06721764E+01 -1.40689837E-02 -8.86180918E+00 -7.95572721E+00  1.93597910E+00
 -9.07022893E+00 -7.64185691E+00 -1.40629448E+00 -9.06972646E+00  7.64181153E+00
  1.40657043E+00 -9.10746963E+00  1.06723351E+01  1.48438262E-02 -8.86206442E+00
  7.95617879E+00 -1.93570692E+00 -5.81719729E+00  1.29207517E+01  1.62365543E-02
 -2.98634798E+00  1.17900583E+01  1.36478481E+00 -3.40626970E+00  1.17094464E+01
 -1.97273800E+00
Force Field                                I                0
Int Atom Types                             I   N=          57
           0           0           0           0           0           0
           0           0           0           0           0           0
           0           0           0           0           0           0
           0           0           0           0           0           0
           0           0           0           0           0           0
           0           0           0           0           0           0
           0           0           0           0           0           0
           0           0           0           0           0           0
           0           0           0           0           0           0
           0           0           0
MM charges                                 R   N=          57
  0.00000000E+00  0.00000000E+00  0.00000000E+00  0.00000000E+00  0.00000000E+00
  0.00000000E+00  0.00000000E+00  0.00000000E+00  0.00000000E+00  0.00000000E+00
  0.00000000E+00  0.00000000E+00  0.00000000E+00  0.00000000E+00  0.00000000E+00
  0.00000000E+00  0.00000000E+00  0.00000000E+00  0.00000000E+00  0.00000000E+00
  0.00000000E+00  0.00000000E+00  0.00000000E+00  0.00000000E+00  0.00000000E+00
  0.00000000E+00  0.00000000E+00  0.00000000E+00  0.00000000E+00  0.00000000E+00
  0.00000000E+00  0.00000000E+00  0.00000000E+00  0.00000000E+00  0.00000000E+00
  0.00000000E+00  0.00000000E+00  0.00000000E+00  0.00000000E+00  0.00000000E+00
  0.00000000E+00  0.00000000E+00  0.00000000E+00  0.00000000E+00  0.00000000E+00
  0.00000000E+00  0.00000000E+00  0.00000000E+00  0.00000000E+00  0.00000000E+00
  0.00000000E+00  0.00000000E+00  0.00000000E+00  0.00000000E+00  0.00000000E+00
  0.00000000E+00  0.00000000E+00
Integer atomic weights                     I   N=          57
          12          12          12          12          12          12
          12          12          12          14          12          12
          12          12          16          12          12          12
          12          12          12          12          12          14
          14          12          12          12          12           1
           1           1           1           1           1           1
           1           1           1           1           1           1
           1           1           1           1           1           1
           1           1           1           1           1           1
           1           1           1
Real atomic weights                        R   N=          57
  1.20000000E+01  1.20000000E+01  1.20000000E+01  1.20000000E+01  1.20000000E+01
  1.20000000E+01  1.20000000E+01  1.20000000E+01  1.20000000E+01  1.40030740E+01
  1.20000000E+01  1.20000000E+01  1.20000000E+01  1.20000000E+01  1.59949146E+01
  1.20000000E+01  1.20000000E+01  1.20000000E+01  1.20000000E+01  1.20000000E+01
  1.20000000E+01  1.20000000E+01  1.20000000E+01  1.40030740E+01  1.40030740E+01
  1.20000000E+01  1.20000000E+01  1.20000000E+01  1.20000000E+01  1.00782504E+00
  1.00782504E+00  1.00782504E+00  1.00782504E+00  1.00782504E+00  1.00782504E+00
  1.00782504E+00  1.00782504E+00  1.00782504E+00  1.00782504E+00  1.00782504E+00
  1.00782504E+00  1.00782504E+00  1.00782504E+00  1.00782504E+00  1.00782504E+00
  1.00782504E+00  1.00782504E+00  1.00782504E+00  1.00782504E+00  1.00782504E+00
  1.00782504E+00  1.00782504E+00  1.00782504E+00  1.00782504E+00  1.00782504E+00
  1.00782504E+00  1.00782504E+00
Atom fragment info                         I   N=          57
           0           0           0           0           0           0
           0           0           0           0           0           0
           0           0           0           0           0           0
           0           0           0           0           0           0
           0           0           0           0           0           0
           0           0           0           0           0           0
           0           0           0           0           0           0
           0           0           0           0           0           0
           0           0           0           0           0           0
           0           0           0
Atom residue num                           I   N=          57
           0           0           0           0           0           0
           0           0           0           0           0           0
           0           0           0           0           0           0
           0           0           0           0           0           0
           0           0           0           0           0           0
           0           0           0           0           0           0
           0           0           0           0           0           0
           0           0           0           0           0           0
           0           0           0           0           0           0
           0           0           0
Nuclear spins                              I   N=          57
           0           0           0           0           0           0
           0           0           0           2           0           0
           0           0           0           0           0           0
           0           0           0           0           0           2
           2           0           0           0           0           1
           1           1           1           1           1           1
           1           1           1           1           1           1
           1           1           1           1           1           1
           1           1           1           1           1           1
           1           1           1
Nuclear ZEff                               R   N=          57
 -3.60000000E+00 -3.60000000E+00 -3.60000000E+00 -3.60000000E+00 -3.60000000E+00
 -3.60000000E+00 -3.60000000E+00 -3.60000000E+00 -3.60000000E+00 -4.55000000E+00
 -3.60000000E+00 -3.60000000E+00 -3.60000000E+00 -3.60000000E+00 -5.60000000E+00
 -3.60000000E+00 -3.60000000E+00 -3.60000000E+00 -3.60000000E+00 -3.60000000E+00
 -3.60000000E+00 -3.60000000E+00 -3.60000000E+00 -4.55000000E+00 -4.55000000E+00
 -3.60000000E+00 -3.60000000E+00 -3.60000000E+00 -3.60000000E+00 -1.00000000E+00
 -1.00000000E+00 -1.00000000E+00 -1.00000000E+00 -1.00000000E+00 -1.00000000E+00
 -1.00000000E+00 -1.00000000E+00 -1.00000000E+00 -1.00000000E+00 -1.00000000E+00
 -1.00000000E+00 -1.00000000E+00 -1.00000000E+00 -1.00000000E+00 -1.00000000E+00
 -1.00000000E+00 -1.00000000E+00 -1.00000000E+00 -1.00000000E+00 -1.00000000E+00
 -1.00000000E+00 -1.00000000E+00 -1.00000000E+00 -1.00000000E+00 -1.00000000E+00
 -1.00000000E+00 -1.00000000E+00
Nuclear QMom                               R   N=          57
  0.00000000E+00  0.00000000E+00  0.00000000E+00  0.00000000E+00  0.00000000E+00
  0.00000000E+00  0.00000000E+00  0.00000000E+00  0.00000000E+00  2.04400000E+00
  0.00000000E+00  0.00000000E+00  0.00000000E+00  0.00000000E+00  0.00000000E+00
  0.00000000E+00  0.00000000E+00  0.00000000E+00  0.00000000E+00  0.00000000E+00
  0.00000000E+00  0.00000000E+00  0.00000000E+00  2.04400000E+00  2.04400000E+00
  0.00000000E+00  0.00000000E+00  0.00000000E+00  0.00000000E+00  0.00000000E+00
  0.00000000E+00  0.00000000E+00  0.00000000E+00  0.00000000E+00  0.00000000E+00
  0.00000000E+00  0.00000000E+00  0.00000000E+00  0.00000000E+00  0.00000000E+00
  0.00000000E+00  0.00000000E+00  0.00000000E+00  0.00000000E+00  0.00000000E+00
  0.00000000E+00  0.00000000E+00  0.00000000E+00  0.00000000E+00  0.00000000E+00
  0.00000000E+00  0.00000000E+00  0.00000000E+00  0.00000000E+00  0.00000000E+00
  0.00000000E+00  0.00000000E+00
Nuclear GFac                               R   N=          57
  0.00000000E+00  0.00000000E+00  0.00000000E+00  0.00000000E+00  0.00000000E+00
  0.00000000E+00  0.00000000E+00  0.00000000E+00  0.00000000E+00  4.03761000E-01
  0.00000000E+00  0.00000000E+00  0.00000000E+00  0.00000000E+00  0.00000000E+00
  0.00000000E+00  0.00000000E+00  0.00000000E+00  0.00000000E+00  0.00000000E+00
  0.00000000E+00  0.00000000E+00  0.00000000E+00  4.03761000E-01  4.03761000E-01
  0.00000000E+00  0.00000000E+00  0.00000000E+00  0.00000000E+00  2.79284600E+00
  2.79284600E+00  2.79284600E+00  2.79284600E+00  2.79284600E+00  2.79284600E+00
  2.79284600E+00  2.79284600E+00  2.79284600E+00  2.79284600E+00  2.79284600E+00
  2.79284600E+00  2.79284600E+00  2.79284600E+00  2.79284600E+00  2.79284600E+00
  2.79284600E+00  2.79284600E+00  2.79284600E+00  2.79284600E+00  2.79284600E+00
  2.79284600E+00  2.79284600E+00  2.79284600E+00  2.79284600E+00  2.79284600E+00
  2.79284600E+00  2.79284600E+00
MicOpt                                     I   N=          57
          -1          -1          -1          -1          -1          -1
          -1          -1          -1          -1          -1          -1
          -1          -1          -1          -1          -1          -1
          -1          -1          -1          -1          -1          -1
          -1          -1          -1          -1          -1          -1
          -1          -1          -1          -1          -1          -1
          -1          -1          -1          -1          -1          -1
          -1          -1          -1          -1          -1          -1
          -1          -1          -1          -1          -1          -1
          -1          -1          -1
Number of contracted shells                I              143
Number of primitive shells                 I              258
Pure/Cartesian d shells                    I                1
Pure/Cartesian f shells                    I                0
Highest angular momentum                   I                1
Largest degree of contraction              I                3
Shell types                                I   N=         143
           0          -1          -1           0          -1          -1
           0          -1          -1           0          -1          -1
           0          -1          -1           0          -1          -1
           0          -1          -1           0          -1          -1
           0          -1          -1           0          -1          -1
           0          -1          -1           0          -1          -1
           0          -1          -1           0          -1          -1
           0          -1          -1           0          -1          -1
           0          -1          -1           0          -1          -1
           0          -1          -1           0          -1          -1
           0          -1          -1           0          -1          -1
           0          -1          -1           0          -1          -1
           0          -1          -1           0          -1          -1
           0          -1          -1           0          -1          -1
           0          -1          -1           0           0           0
           0           0           0           0           0           0
           0           0           0           0           0           0
           0           0           0           0           0           0
           0           0           0           0           0           0
           0           0           0           0           0           0
           0           0           0           0           0           0
           0           0           0           0           0           0
           0           0           0           0           0           0
           0           0           0           0           0
Number of primitives per shell             I   N=         143
           3           2           1           3           2           1
           3           2           1           3           2           1
           3           2           1           3           2           1
           3           2           1           3           2           1
           3           2           1           3           2           1
           3           2           1           3           2           1
           3           2           1           3           2           1
           3           2           1           3           2           1
           3           2           1           3           2           1
           3           2           1           3           2           1
           3           2           1           3           2           1
           3           2           1           3           2           1
           3           2           1           3           2           1
           3           2           1           3           2           1
           3           2           1           2           1           2
           1           2           1           2           1           2
           1           2           1           2           1           2
           1           2           1           2           1           2
           1           2           1           2           1           2
           1           2           1           2           1           2
           1           2           1           2           1           2
           1           2           1           2           1           2
           1           2           1           2           1           2
           1           2           1           2           1
Shell to atom map                          I   N=         143
           1           1           1           2           2           2
           3           3           3           4           4           4
           5           5           5           6           6           6
           7           7           7           8           8           8
           9           9           9          10          10          10
          11          11          11          12          12          12
          13          13          13          14          14          14
          15          15          15          16          16          16
          17          17          17          18          18          18
          19          19          19          20          20          20
          21          21          21          22          22          22
          23          23          23          24          24          24
          25          25          25          26          26          26
          27          27          27          28          28          28
          29          29          29          30          30          31
          31          32          32          33          33          34
          34          35          35          36          36          37
          37          38          38          39          39          40
          40          41          41          42          42          43
          43          44          44          45          45          46
          46          47          47          48          48          49
          49          50          50          51          51          52
          52          53          53          54          54          55
          55          56          56          57          57
Primitive exponents                        R   N=         258
  1.72256000E+02  2.59109000E+01  5.53335000E+00  3.66498000E+00  7.70545000E-01
  1.95857000E-01  1.72256000E+02  2.59109000E+01  5.53335000E+00  3.66498000E+00
  7.70545000E-01  1.95857000E-01  1.72256000E+02  2.59109000E+01  5.53335000E+00
  3.66498000E+00  7.70545000E-01  1.95857000E-01  1.72256000E+02  2.59109000E+01
  5.53335000E+00  3.66498000E+00  7.70545000E-01  1.95857000E-01  1.72256000E+02
  2.59109000E+01  5.53335000E+00  3.66498000E+00  7.70545000E-01  1.95857000E-01
  1.72256000E+02  2.59109000E+01  5.53335000E+00  3.66498000E+00  7.70545000E-01
  1.95857000E-01  1.72256000E+02  2.59109000E+01  5.53335000E+00  3.66498000E+00
  7.70545000E-01  1.95857000E-01  1.72256000E+02  2.59109000E+01  5.53335000E+00
  3.66498000E+00  7.70545000E-01  1.95857000E-01  1.72256000E+02  2.59109000E+01
  5.53335000E+00  3.66498000E+00  7.70545000E-01  1.95857000E-01  2.42766000E+02
  3.64851000E+01  7.81449000E+00  5.42522000E+00  1.14915000E+00  2.83205000E-01
  1.72256000E+02  2.59109000E+01  5.53335000E+00  3.66498000E+00  7.70545000E-01
  1.95857000E-01  1.72256000E+02  2.59109000E+01  5.53335000E+00  3.66498000E+00
  7.70545000E-01  1.95857000E-01  1.72256000E+02  2.59109000E+01  5.53335000E+00
  3.66498000E+00  7.70545000E-01  1.95857000E-01  1.72256000E+02  2.59109000E+01
  5.53335000E+00  3.66498000E+00  7.70545000E-01  1.95857000E-01  3.22037000E+02
  4.84308000E+01  1.04206000E+01  7.40294000E+00  1.57620000E+00  3.73684000E-01
  1.72256000E+02  2.59109000E+01  5.53335000E+00  3.66498000E+00  7.70545000E-01
  1.95857000E-01  1.72256000E+02  2.59109000E+01  5.53335000E+00  3.66498000E+00
  7.70545000E-01  1.95857000E-01  1.72256000E+02  2.59109000E+01  5.53335000E+00
  3.66498000E+00  7.70545000E-01  1.95857000E-01  1.72256000E+02  2.59109000E+01
  5.53335000E+00  3.66498000E+00  7.70545000E-01  1.95857000E-01  1.72256000E+02
  2.59109000E+01  5.53335000E+00  3.66498000E+00  7.70545000E-01  1.95857000E-01
  1.72256000E+02  2.59109000E+01  5.53335000E+00  3.66498000E+00  7.70545000E-01
  1.95857000E-01  1.72256000E+02  2.59109000E+01  5.53335000E+00  3.66498000E+00
  7.70545000E-01  1.95857000E-01  1.72256000E+02  2.59109000E+01  5.53335000E+00
  3.66498000E+00  7.70545000E-01  1.95857000E-01  2.42766000E+02  3.64851000E+01
  7.81449000E+00  5.42522000E+00  1.14915000E+00  2.83205000E-01  2.42766000E+02
  3.64851000E+01  7.81449000E+00  5.42522000E+00  1.14915000E+00  2.83205000E-01
  1.72256000E+02  2.59109000E+01  5.53335000E+00  3.66498000E+00  7.70545000E-01
  1.95857000E-01  1.72256000E+02  2.59109000E+01  5.53335000E+00  3.66498000E+00
  7.70545000E-01  1.95857000E-01  1.72256000E+02  2.59109000E+01  5.53335000E+00
  3.66498000E+00  7.70545000E-01  1.95857000E-01  1.72256000E+02  2.59109000E+01
  5.53335000E+00  3.66498000E+00  7.70545000E-01  1.95857000E-01  5.44717800E+00
  8.24547240E-01  1.83191580E-01  5.44717800E+00  8.24547240E-01  1.83191580E-01
  5.44717800E+00  8.24547240E-01  1.83191580E-01  5.44717800E+00  8.24547240E-01
  1.83191580E-01  5.44717800E+00  8.24547240E-01  1.83191580E-01  5.44717800E+00
  8.24547240E-01  1.83191580E-01  5.44717800E+00  8.24547240E-01  1.83191580E-01
  5.44717800E+00  8.24547240E-01  1.83191580E-01  5.44717800E+00  8.24547240E-01
  1.83191580E-01  5.44717800E+00  8.24547240E-01  1.83191580E-01  5.44717800E+00
  8.24547240E-01  1.83191580E-01  5.44717800E+00  8.24547240E-01  1.83191580E-01
  5.44717800E+00  8.24547240E-01  1.83191580E-01  5.44717800E+00  8.24547240E-01
  1.83191580E-01  5.44717800E+00  8.24547240E-01  1.83191580E-01  5.44717800E+00
  8.24547240E-01  1.83191580E-01  5.44717800E+00  8.24547240E-01  1.83191580E-01
  5.44717800E+00  8.24547240E-01  1.83191580E-01  5.44717800E+00  8.24547240E-01
  1.83191580E-01  5.44717800E+00  8.24547240E-01  1.83191580E-01  5.44717800E+00
  8.24547240E-01  1.83191580E-01  5.44717800E+00  8.24547240E-01  1.83191580E-01
  5.44717800E+00  8.24547240E-01  1.83191580E-01  5.44717800E+00  8.24547240E-01
  1.83191580E-01  5.44717800E+00  8.24547240E-01  1.83191580E-01  5.44717800E+00
  8.24547240E-01  1.83191580E-01  5.44717800E+00  8.24547240E-01  1.83191580E-01
  5.44717800E+00  8.24547240E-01  1.83191580E-01
Contraction coefficients                   R   N=         258
  6.17669074E-02  3.58794043E-01  7.00713084E-01 -3.95895162E-01  1.21583436E+00
  1.00000000E+00  6.17669074E-02  3.58794043E-01  7.00713084E-01 -3.95895162E-01
  1.21583436E+00  1.00000000E+00  6.17669074E-02  3.58794043E-01  7.00713084E-01
 -3.95895162E-01  1.21583436E+00  1.00000000E+00  6.17669074E-02  3.58794043E-01
  7.00713084E-01 -3.95895162E-01  1.21583436E+00  1.00000000E+00  6.17669074E-02
  3.58794043E-01  7.00713084E-01 -3.95895162E-01  1.21583436E+00  1.00000000E+00
  6.17669074E-02  3.58794043E-01  7.00713084E-01 -3.95895162E-01  1.21583436E+00
  1.00000000E+00  6.17669074E-02  3.58794043E-01  7.00713084E-01 -3.95895162E-01
  1.21583436E+00  1.00000000E+00  6.17669074E-02  3.58794043E-01  7.00713084E-01
 -3.95895162E-01  1.21583436E+00  1.00000000E+00  6.17669074E-02  3.58794043E-01
  7.00713084E-01 -3.95895162E-01  1.21583436E+00  1.00000000E+00  5.98657005E-02
  3.52955003E-01  7.06513006E-01 -4.13300077E-01  1.22441727E+00  1.00000000E+00
  6.17669074E-02  3.58794043E-01  7.00713084E-01 -3.95895162E-01  1.21583436E+00
  1.00000000E+00  6.17669074E-02  3.58794043E-01  7.00713084E-01 -3.95895162E-01
  1.21583436E+00  1.00000000E+00  6.17669074E-02  3.58794043E-01  7.00713084E-01
 -3.95895162E-01  1.21583436E+00  1.00000000E+00  6.17669074E-02  3.58794043E-01
  7.00713084E-01 -3.95895162E-01  1.21583436E+00  1.00000000E+00  5.92393934E-02
  3.51499961E-01  7.07657921E-01 -4.04453583E-01  1.22156176E+00  1.00000000E+00
  6.17669074E-02  3.58794043E-01  7.00713084E-01 -3.95895162E-01  1.21583436E+00
  1.00000000E+00  6.17669074E-02  3.58794043E-01  7.00713084E-01 -3.95895162E-01
  1.21583436E+00  1.00000000E+00  6.17669074E-02  3.58794043E-01  7.00713084E-01
 -3.95895162E-01  1.21583436E+00  1.00000000E+00  6.17669074E-02  3.58794043E-01
  7.00713084E-01 -3.95895162E-01  1.21583436E+00  1.00000000E+00  6.17669074E-02
  3.58794043E-01  7.00713084E-01 -3.95895162E-01  1.21583436E+00  1.00000000E+00
  6.17669074E-02  3.58794043E-01  7.00713084E-01 -3.95895162E-01  1.21583436E+00
  1.00000000E+00  6.17669074E-02  3.58794043E-01  7.00713084E-01 -3.95895162E-01
  1.21583436E+00  1.00000000E+00  6.17669074E-02  3.58794043E-01  7.00713084E-01
 -3.95895162E-01  1.21583436E+00  1.00000000E+00  5.98657005E-02  3.52955003E-01
  7.06513006E-01 -4.13300077E-01  1.22441727E+00  1.00000000E+00  5.98657005E-02
  3.52955003E-01  7.06513006E-01 -4.13300077E-01  1.22441727E+00  1.00000000E+00
  6.17669074E-02  3.58794043E-01  7.00713084E-01 -3.95895162E-01  1.21583436E+00
  1.00000000E+00  6.17669074E-02  3.58794043E-01  7.00713084E-01 -3.95895162E-01
  1.21583436E+00  1.00000000E+00  6.17669074E-02  3.58794043E-01  7.00713084E-01
 -3.95895162E-01  1.21583436E+00  1.00000000E+00  6.17669074E-02  3.58794043E-01
  7.00713084E-01 -3.95895162E-01  1.21583436E+00  1.00000000E+00  1.56284979E-01
  9.04690877E-01  1.00000000E+00  1.56284979E-01  9.04690877E-01  1.00000000E+00
  1.56284979E-01  9.04690877E-01  1.00000000E+00  1.56284979E-01  9.04690877E-01
  1.00000000E+00  1.56284979E-01  9.04690877E-01  1.00000000E+00  1.56284979E-01
  9.04690877E-01  1.00000000E+00  1.56284979E-01  9.04690877E-01  1.00000000E+00
  1.56284979E-01  9.04690877E-01  1.00000000E+00  1.56284979E-01  9.04690877E-01
  1.00000000E+00  1.56284979E-01  9.04690877E-01  1.00000000E+00  1.56284979E-01
  9.04690877E-01  1.00000000E+00  1.56284979E-01  9.04690877E-01  1.00000000E+00
  1.56284979E-01  9.04690877E-01  1.00000000E+00  1.56284979E-01  9.04690877E-01
  1.00000000E+00  1.56284979E-01  9.04690877E-01  1.00000000E+00  1.56284979E-01
  9.04690877E-01  1.00000000E+00  1.56284979E-01  9.04690877E-01  1.00000000E+00
  1.56284979E-01  9.04690877E-01  1.00000000E+00  1.56284979E-01  9.04690877E-01
  1.00000000E+00  1.56284979E-01  9.04690877E-01  1.00000000E+00  1.56284979E-01
  9.04690877E-01  1.00000000E+00  1.56284979E-01  9.04690877E-01  1.00000000E+00
  1.56284979E-01  9.04690877E-01  1.00000000E+00  1.56284979E-01  9.04690877E-01
  1.00000000E+00  1.56284979E-01  9.04690877E-01  1.00000000E+00  1.56284979E-01
  9.04690877E-01  1.00000000E+00  1.56284979E-01  9.04690877E-01  1.00000000E+00
  1.56284979E-01  9.04690877E-01  1.00000000E+00
P(S=P) Contraction coefficients            R   N=         258
  0.00000000E+00  0.00000000E+00  0.00000000E+00  2.36459947E-01  8.60618806E-01
  1.00000000E+00  0.00000000E+00  0.00000000E+00  0.00000000E+00  2.36459947E-01
  8.60618806E-01  1.00000000E+00  0.00000000E+00  0.00000000E+00  0.00000000E+00
  2.36459947E-01  8.60618806E-01  1.00000000E+00  0.00000000E+00  0.00000000E+00
  0.00000000E+00  2.36459947E-01  8.60618806E-01  1.00000000E+00  0.00000000E+00
  0.00000000E+00  0.00000000E+00  2.36459947E-01  8.60618806E-01  1.00000000E+00
  0.00000000E+00  0.00000000E+00  0.00000000E+00  2.36459947E-01  8.60618806E-01